ITEM: TIMESTEP
4800000
ITEM: NUMBER OF ATOMS
12
ITEM: BOX BOUNDS pp pp pp
3.4973054145025765e+02 4.0026945854974235e+02
3.4973054145025765e+02 4.0026945854974235e+02
1.1377176072643133e+03 1.3622823927356853e+03
ITEM: ATOMS id mol type xs ys zs 
1 1 1 0.720155 0.500000 0.500000
2 1 1 0.650513 0.500000 0.500000 
3 1 1 0.627168 0.500000 0.500000 
4 1 1 0.409183 0.500000 0.500000 
5 2 1 0.441867 0.500000 0.500000 
6 2 1 0.457013 0.500000 0.500000
7 2 1 0.409183 0.500000 0.500000 
8 2 1 0.441867 0.500000 0.500000 
9 3 1 0.457013 0.500000 0.500000
10 3 1 0.409183 0.500000 0.500000 
11 3 1 0.441867 0.500000 0.500000 
12 3 1 0.457013 0.500000 0.500000 
